
     Program PHONON v.7.1 starts on 19Oct2022 at 16:53:45 

     This program is part of the open-source Quantum ESPRESSO suite
     for quantum simulation of materials; please cite
         "P. Giannozzi et al., J. Phys.:Condens. Matter 21 395502 (2009);
         "P. Giannozzi et al., J. Phys.:Condens. Matter 29 465901 (2017);
         "P. Giannozzi et al., J. Chem. Phys. 152 154105 (2020);
          URL http://www.quantum-espresso.org", 
     in publications or presentations arising from this work. More details at
     http://www.quantum-espresso.org/quote

     Parallel version (MPI), running on     1 processors

     MPI processes distributed on     1 nodes
     5241 MiB available memory on the printing compute node when the environment starts

     Waiting for input...
     Reading input from standard input

     Reading xml data from directory:

     ./Si.save/

     Subspace diagonalization in iterative solution of the eigenvalue problem:
     a serial algorithm will be used


     IMPORTANT: XC functional enforced from input :
     Exchange-correlation= PW
                           (   1   4   0   0   0   0   0)
     Any further DFT definition will be discarded
     Please, verify this is what you really want


     G-vector sticks info
     --------------------
     sticks:   dense  smooth     PW     G-vecs:    dense   smooth      PW
     Sum         721     721    223                12627    12627    2133

     Using Slab Decomposition

     Reading collected, re-writing distributed wavefunctions


     Dynamical matrices for ( 1, 1, 1)  uniform grid of q-points
     (   1 q-points):
       N         xq(1)         xq(2)         xq(3) 
       1   0.000000000   0.000000000   0.000000000
  autoval = 0.1892E+00
     Irreps are as follows:

                     mode #   1
                     (  -0.00000  -0.00000   ) 
                     (  -0.00000  -0.00000   ) 
                     (  -0.00000  -0.00000   ) 
                     (  -0.60049  -0.00000   ) 
                     (   0.79861  -0.00000   ) 
                     (   0.04030  -0.00000   ) 
  autoval = 0.1892E+00
     Irreps are as follows:

                     mode #   2
                     (  -0.00000  -0.00000   ) 
                     (  -0.00000  -0.00000   ) 
                     (  -0.00000  -0.00000   ) 
                     (  -0.34972  -0.00000   ) 
                     (  -0.30762  -0.00000   ) 
                     (   0.88491  -0.00000   ) 
  autoval = 0.1892E+00
     Irreps are as follows:

                     mode #   3
                     (  -0.00000  -0.00000   ) 
                     (  -0.00000  -0.00000   ) 
                     (  -0.00000  -0.00000   ) 
                     (  -0.71910  -0.00000   ) 
                     (  -0.51729  -0.00000   ) 
                     (  -0.46402  -0.00000   ) 
  autoval = 0.2681E+01
     Irreps are as follows:

                     mode #   4
                     (  -0.10000  -0.00000   ) 
                     (   0.70000   0.00000   ) 
                     (  -0.70711  -0.00000   ) 
                     (  -0.00000  -0.00000   ) 
                     (  -0.00000  -0.00000   ) 
                     (  -0.00000  -0.00000   ) 
  autoval = 0.2681E+01
     Irreps are as follows:

                     mode #   5
                     (  -0.98995  -0.00000   ) 
                     (  -0.14142  -0.00000   ) 
                     (  -0.00000  -0.00000   ) 
                     (  -0.00000  -0.00000   ) 
                     (  -0.00000  -0.00000   ) 
                     (  -0.00000  -0.00000   ) 
  autoval = 0.2681E+01
     Irreps are as follows:

                     mode #   6
                     (  -0.10000  -0.00000   ) 
                     (   0.70000   0.00000   ) 
                     (   0.70711   0.00000   ) 
                     (  -0.00000   0.00000   ) 
                     (  -0.00000   0.00000   ) 
                     (  -0.00000   0.00000   ) 

     Calculation of q =    0.0000000   0.0000000   0.0000000

     phonons                                                                    

     bravais-lattice index     =            2
     lattice parameter (alat)  =      10.1933  a.u.
     unit-cell volume          =     264.7822 (a.u.)^3
     number of atoms/cell      =            2
     number of atomic types    =            1
     kinetic-energy cut-off    =      50.0000  Ry
     charge density cut-off    =     200.0000  Ry
     convergence threshold     =      1.0E-16
     beta                      =       0.7000
     number of iterations used =            4
     Exchange-correlation= PW
                           (   1   4   0   0   0   0   0)


     celldm(1)=   10.19333  celldm(2)=    0.00000  celldm(3)=    0.00000
     celldm(4)=    0.00000  celldm(5)=    0.00000  celldm(6)=    0.00000

     crystal axes: (cart. coord. in units of alat)
               a(1) = ( -0.5000  0.0000  0.5000 )  
               a(2) = (  0.0000  0.5000  0.5000 )  
               a(3) = ( -0.5000  0.5000  0.0000 )  

     reciprocal axes: (cart. coord. in units 2 pi/alat)
               b(1) = ( -1.0000 -1.0000  1.0000 )  
               b(2) = (  1.0000  1.0000  1.0000 )  
               b(3) = ( -1.0000  1.0000 -1.0000 )  


     Atoms inside the unit cell: 

     Cartesian axes

     site n.  atom      mass           positions (alat units)
        1     Si  28.0855   tau(    1) = (    0.00000    0.00000    0.00000  )
        2     Si  28.0855   tau(    2) = (   -0.25000    0.25000    0.25000  )

     Computing dynamical matrix for 
                    q = (   0.0000000   0.0000000   0.0000000 )

     25 Sym.Ops. (with q -> -q+G )

                                    s                        frac. trans.

      isym =  1     identity                                     

 cryst.   s( 1) = (     1          0          0      )
                  (     0          1          0      )
                  (     0          0          1      )

 cart.    s( 1) = (  1.0000000  0.0000000  0.0000000 )
                  (  0.0000000  1.0000000  0.0000000 )
                  (  0.0000000  0.0000000  1.0000000 )


      isym =  2     180 deg rotation - cart. axis [0,0,1]        

 cryst.   s( 2) = (     0          1         -1      )
                  (     1          0         -1      )
                  (     0          0         -1      )

 cart.    s( 2) = ( -1.0000000  0.0000000  0.0000000 )
                  (  0.0000000 -1.0000000  0.0000000 )
                  (  0.0000000  0.0000000  1.0000000 )


      isym =  3     180 deg rotation - cart. axis [0,1,0]        

 cryst.   s( 3) = (    -1          0          0      )
                  (    -1          0          1      )
                  (    -1          1          0      )

 cart.    s( 3) = ( -1.0000000  0.0000000  0.0000000 )
                  (  0.0000000  1.0000000  0.0000000 )
                  (  0.0000000  0.0000000 -1.0000000 )


      isym =  4     180 deg rotation - cart. axis [1,0,0]        

 cryst.   s( 4) = (     0         -1          1      )
                  (     0         -1          0      )
                  (     1         -1          0      )

 cart.    s( 4) = (  1.0000000  0.0000000  0.0000000 )
                  (  0.0000000 -1.0000000  0.0000000 )
                  (  0.0000000  0.0000000 -1.0000000 )


      isym =  5     120 deg rotation - cart. axis [-1,-1,-1]     

 cryst.   s( 5) = (    -1          0          1      )
                  (    -1          1          0      )
                  (    -1          0          0      )

 cart.    s( 5) = (  0.0000000  1.0000000  0.0000000 )
                  (  0.0000000  0.0000000  1.0000000 )
                  (  1.0000000  0.0000000  0.0000000 )


      isym =  6     120 deg rotation - cart. axis [-1,1,1]       

 cryst.   s( 6) = (     0          1          0      )
                  (     0          0          1      )
                  (     1          0          0      )

 cart.    s( 6) = (  0.0000000 -1.0000000  0.0000000 )
                  (  0.0000000  0.0000000  1.0000000 )
                  ( -1.0000000  0.0000000  0.0000000 )


      isym =  7     120 deg rotation - cart. axis [1,1,-1]       

 cryst.   s( 7) = (     1          0         -1      )
                  (     0          0         -1      )
                  (     0          1         -1      )

 cart.    s( 7) = (  0.0000000  1.0000000  0.0000000 )
                  (  0.0000000  0.0000000 -1.0000000 )
                  ( -1.0000000  0.0000000  0.0000000 )


      isym =  8     120 deg rotation - cart. axis [1,-1,1]       

 cryst.   s( 8) = (     0         -1          0      )
                  (     1         -1          0      )
                  (     0         -1          1      )

 cart.    s( 8) = (  0.0000000 -1.0000000  0.0000000 )
                  (  0.0000000  0.0000000 -1.0000000 )
                  (  1.0000000  0.0000000  0.0000000 )


      isym =  9     120 deg rotation - cart. axis [1,1,1]        

 cryst.   s( 9) = (     0          0         -1      )
                  (     0          1         -1      )
                  (     1          0         -1      )

 cart.    s( 9) = (  0.0000000  0.0000000  1.0000000 )
                  (  1.0000000  0.0000000  0.0000000 )
                  (  0.0000000  1.0000000  0.0000000 )


      isym = 10     120 deg rotation - cart. axis [-1,1,-1]      

 cryst.   s(10) = (    -1          1          0      )
                  (    -1          0          0      )
                  (    -1          0          1      )

 cart.    s(10) = (  0.0000000  0.0000000  1.0000000 )
                  ( -1.0000000  0.0000000  0.0000000 )
                  (  0.0000000 -1.0000000  0.0000000 )


      isym = 11     120 deg rotation - cart. axis [1,-1,-1]      

 cryst.   s(11) = (     0          0          1      )
                  (     1          0          0      )
                  (     0          1          0      )

 cart.    s(11) = (  0.0000000  0.0000000 -1.0000000 )
                  ( -1.0000000  0.0000000  0.0000000 )
                  (  0.0000000  1.0000000  0.0000000 )


      isym = 12     120 deg rotation - cart. axis [-1,-1,1]      

 cryst.   s(12) = (     1         -1          0      )
                  (     0         -1          1      )
                  (     0         -1          0      )

 cart.    s(12) = (  0.0000000  0.0000000 -1.0000000 )
                  (  1.0000000  0.0000000  0.0000000 )
                  (  0.0000000 -1.0000000  0.0000000 )


      isym = 13     inv. 180 deg rotation - cart. axis [1,1,0]   

 cryst.   s(13) = (     0          1          0      )
                  (     1          0          0      )
                  (     0          0          1      )

 cart.    s(13) = (  0.0000000 -1.0000000  0.0000000 )
                  ( -1.0000000  0.0000000  0.0000000 )
                  (  0.0000000  0.0000000  1.0000000 )


      isym = 14     inv. 180 deg rotation - cart. axis [1,-1,0]  

 cryst.   s(14) = (     1          0         -1      )
                  (     0          1         -1      )
                  (     0          0         -1      )

 cart.    s(14) = (  0.0000000  1.0000000  0.0000000 )
                  (  1.0000000  0.0000000  0.0000000 )
                  (  0.0000000  0.0000000  1.0000000 )


      isym = 15     inv.  90 deg rotation - cart. axis [0,0,-1]  

 cryst.   s(15) = (     0         -1          0      )
                  (     0         -1          1      )
                  (     1         -1          0      )

 cart.    s(15) = (  0.0000000 -1.0000000  0.0000000 )
                  (  1.0000000  0.0000000  0.0000000 )
                  (  0.0000000  0.0000000 -1.0000000 )


      isym = 16     inv.  90 deg rotation - cart. axis [0,0,1]   

 cryst.   s(16) = (    -1          0          1      )
                  (    -1          0          0      )
                  (    -1          1          0      )

 cart.    s(16) = (  0.0000000  1.0000000  0.0000000 )
                  ( -1.0000000  0.0000000  0.0000000 )
                  (  0.0000000  0.0000000 -1.0000000 )


      isym = 17     inv. 180 deg rotation - cart. axis [1,0,1]   

 cryst.   s(17) = (     1          0          0      )
                  (     0          0          1      )
                  (     0          1          0      )

 cart.    s(17) = (  0.0000000  0.0000000 -1.0000000 )
                  (  0.0000000  1.0000000  0.0000000 )
                  ( -1.0000000  0.0000000  0.0000000 )


      isym = 18     inv. 180 deg rotation - cart. axis [-1,0,1]  

 cryst.   s(18) = (    -1          0          0      )
                  (    -1          1          0      )
                  (    -1          0          1      )

 cart.    s(18) = (  0.0000000  0.0000000  1.0000000 )
                  (  0.0000000  1.0000000  0.0000000 )
                  (  1.0000000  0.0000000  0.0000000 )


      isym = 19     inv.  90 deg rotation - cart. axis [0,1,0]   

 cryst.   s(19) = (     0         -1          1      )
                  (     1         -1          0      )
                  (     0         -1          0      )

 cart.    s(19) = (  0.0000000  0.0000000 -1.0000000 )
                  (  0.0000000 -1.0000000  0.0000000 )
                  (  1.0000000  0.0000000  0.0000000 )


      isym = 20     inv.  90 deg rotation - cart. axis [0,-1,0]  

 cryst.   s(20) = (     0          1         -1      )
                  (     0          0         -1      )
                  (     1          0         -1      )

 cart.    s(20) = (  0.0000000  0.0000000  1.0000000 )
                  (  0.0000000 -1.0000000  0.0000000 )
                  ( -1.0000000  0.0000000  0.0000000 )


      isym = 21     inv. 180 deg rotation - cart. axis [0,1,1]   

 cryst.   s(21) = (     1         -1          0      )
                  (     0         -1          0      )
                  (     0         -1          1      )

 cart.    s(21) = (  1.0000000  0.0000000  0.0000000 )
                  (  0.0000000  0.0000000 -1.0000000 )
                  (  0.0000000 -1.0000000  0.0000000 )


      isym = 22     inv. 180 deg rotation - cart. axis [0,1,-1]  

 cryst.   s(22) = (     0          0          1      )
                  (     0          1          0      )
                  (     1          0          0      )

 cart.    s(22) = (  1.0000000  0.0000000  0.0000000 )
                  (  0.0000000  0.0000000  1.0000000 )
                  (  0.0000000  1.0000000  0.0000000 )


      isym = 23     inv.  90 deg rotation - cart. axis [-1,0,0]  

 cryst.   s(23) = (     0          0         -1      )
                  (     1          0         -1      )
                  (     0          1         -1      )

 cart.    s(23) = ( -1.0000000  0.0000000  0.0000000 )
                  (  0.0000000  0.0000000 -1.0000000 )
                  (  0.0000000  1.0000000  0.0000000 )


      isym = 24     inv.  90 deg rotation - cart. axis [1,0,0]   

 cryst.   s(24) = (    -1          1          0      )
                  (    -1          0          1      )
                  (    -1          0          0      )

 cart.    s(24) = ( -1.0000000  0.0000000  0.0000000 )
                  (  0.0000000  0.0000000  1.0000000 )
                  (  0.0000000 -1.0000000  0.0000000 )


     This transformation sends q -> -q+G

      isym = 25     identity                                     

 cryst.   s(25) = (     1          0          0      )
                  (     0          1          0      )
                  (     0          0          1      )

 cart.    s(25) = (  1.0000000  0.0000000  0.0000000 )
                  (  0.0000000  1.0000000  0.0000000 )
                  (  0.0000000  0.0000000  1.0000000 )


     G cutoff =  526.3841  (  12627 G-vectors)     FFT grid: ( 36, 36, 36)
     number of k points=    72
                       cart. coord. in units 2pi/alat
        k(    1) = (   0.0000000   0.0000000   0.0000000), wk =   0.0011574
        k(    2) = (  -0.0833333   0.0833333  -0.0833333), wk =   0.0092593
        k(    3) = (  -0.1666667   0.1666667  -0.1666667), wk =   0.0092593
        k(    4) = (  -0.2500000   0.2500000  -0.2500000), wk =   0.0092593
        k(    5) = (  -0.3333333   0.3333333  -0.3333333), wk =   0.0092593
        k(    6) = (  -0.4166667   0.4166667  -0.4166667), wk =   0.0092593
        k(    7) = (   0.5000000  -0.5000000   0.5000000), wk =   0.0046296
        k(    8) = (   0.0000000   0.1666667   0.0000000), wk =   0.0069444
        k(    9) = (  -0.0833333   0.2500000  -0.0833333), wk =   0.0277778
        k(   10) = (  -0.1666667   0.3333333  -0.1666667), wk =   0.0277778
        k(   11) = (  -0.2500000   0.4166667  -0.2500000), wk =   0.0277778
        k(   12) = (  -0.3333333   0.5000000  -0.3333333), wk =   0.0277778
        k(   13) = (   0.5833333  -0.4166667   0.5833333), wk =   0.0277778
        k(   14) = (   0.5000000  -0.3333333   0.5000000), wk =   0.0277778
        k(   15) = (   0.4166667  -0.2500000   0.4166667), wk =   0.0277778
        k(   16) = (   0.3333333  -0.1666667   0.3333333), wk =   0.0277778
        k(   17) = (   0.2500000  -0.0833333   0.2500000), wk =   0.0277778
        k(   18) = (   0.1666667  -0.0000000   0.1666667), wk =   0.0138889
        k(   19) = (   0.0000000   0.3333333   0.0000000), wk =   0.0069444
        k(   20) = (  -0.0833333   0.4166667  -0.0833333), wk =   0.0277778
        k(   21) = (  -0.1666667   0.5000000  -0.1666667), wk =   0.0277778
        k(   22) = (  -0.2500000   0.5833333  -0.2500000), wk =   0.0277778
        k(   23) = (   0.6666667  -0.3333333   0.6666667), wk =   0.0277778
        k(   24) = (   0.5833333  -0.2500000   0.5833333), wk =   0.0277778
        k(   25) = (   0.5000000  -0.1666667   0.5000000), wk =   0.0277778
        k(   26) = (   0.4166667  -0.0833333   0.4166667), wk =   0.0277778
        k(   27) = (   0.3333333   0.0000000   0.3333333), wk =   0.0138889
        k(   28) = (   0.0000000   0.5000000   0.0000000), wk =   0.0069444
        k(   29) = (  -0.0833333   0.5833333  -0.0833333), wk =   0.0277778
        k(   30) = (  -0.1666667   0.6666667  -0.1666667), wk =   0.0277778
        k(   31) = (   0.7500000  -0.2500000   0.7500000), wk =   0.0277778
        k(   32) = (   0.6666667  -0.1666667   0.6666667), wk =   0.0277778
        k(   33) = (   0.5833333  -0.0833333   0.5833333), wk =   0.0277778
        k(   34) = (   0.5000000   0.0000000   0.5000000), wk =   0.0138889
        k(   35) = (   0.0000000   0.6666667   0.0000000), wk =   0.0069444
        k(   36) = (  -0.0833333   0.7500000  -0.0833333), wk =   0.0277778
        k(   37) = (   0.8333333  -0.1666667   0.8333333), wk =   0.0277778
        k(   38) = (   0.7500000  -0.0833333   0.7500000), wk =   0.0277778
        k(   39) = (   0.6666667  -0.0000000   0.6666667), wk =   0.0138889
        k(   40) = (   0.0000000   0.8333333   0.0000000), wk =   0.0069444
        k(   41) = (   0.9166667  -0.0833333   0.9166667), wk =   0.0277778
        k(   42) = (   0.8333333   0.0000000   0.8333333), wk =   0.0138889
        k(   43) = (   0.0000000  -1.0000000   0.0000000), wk =   0.0034722
        k(   44) = (  -0.1666667   0.3333333   0.0000000), wk =   0.0277778
        k(   45) = (  -0.2500000   0.4166667  -0.0833333), wk =   0.0555556
        k(   46) = (  -0.3333333   0.5000000  -0.1666667), wk =   0.0555556
        k(   47) = (   0.5833333  -0.4166667   0.7500000), wk =   0.0555556
        k(   48) = (   0.5000000  -0.3333333   0.6666667), wk =   0.0277778
        k(   49) = (  -0.1666667   0.5000000   0.0000000), wk =   0.0277778
        k(   50) = (  -0.2500000   0.5833333  -0.0833333), wk =   0.0555556
        k(   51) = (   0.6666667  -0.3333333   0.8333333), wk =   0.0555556
        k(   52) = (   0.5833333  -0.2500000   0.7500000), wk =   0.0555556
        k(   53) = (   0.5000000  -0.1666667   0.6666667), wk =   0.0555556
        k(   54) = (   0.4166667  -0.0833333   0.5833333), wk =   0.0555556
        k(   55) = (   0.3333333   0.0000000   0.5000000), wk =   0.0277778
        k(   56) = (  -0.1666667   0.6666667  -0.0000000), wk =   0.0277778
        k(   57) = (   0.7500000  -0.2500000   0.9166667), wk =   0.0555556
        k(   58) = (   0.6666667  -0.1666667   0.8333333), wk =   0.0555556
        k(   59) = (   0.5833333  -0.0833333   0.7500000), wk =   0.0555556
        k(   60) = (   0.5000000   0.0000000   0.6666667), wk =   0.0277778
        k(   61) = (   0.8333333  -0.1666667   1.0000000), wk =   0.0277778
        k(   62) = (   0.7500000  -0.0833333   0.9166667), wk =   0.0555556
        k(   63) = (   0.6666667   0.0000000   0.8333333), wk =   0.0277778
        k(   64) = (  -0.1666667  -1.0000000  -0.0000000), wk =   0.0138889
        k(   65) = (   0.6666667  -0.3333333   1.0000000), wk =   0.0277778
        k(   66) = (   0.5833333  -0.2500000   0.9166667), wk =   0.0555556
        k(   67) = (   0.5000000  -0.1666667   0.8333333), wk =   0.0277778
        k(   68) = (   0.6666667  -0.1666667   1.0000000), wk =   0.0277778
        k(   69) = (   0.5833333  -0.0833333   0.9166667), wk =   0.0555556
        k(   70) = (   0.5000000   0.0000000   0.8333333), wk =   0.0277778
        k(   71) = (  -0.3333333  -1.0000000   0.0000000), wk =   0.0138889
        k(   72) = (  -0.5000000  -1.0000000   0.0000000), wk =   0.0069444

                       cryst. coord.
        k(    1) = (   0.0000000   0.0000000   0.0000000), wk =   0.0011574
        k(    2) = (   0.0000000   0.0000000   0.0833333), wk =   0.0092593
        k(    3) = (   0.0000000   0.0000000   0.1666667), wk =   0.0092593
        k(    4) = (   0.0000000   0.0000000   0.2500000), wk =   0.0092593
        k(    5) = (   0.0000000   0.0000000   0.3333333), wk =   0.0092593
        k(    6) = (   0.0000000   0.0000000   0.4166667), wk =   0.0092593
        k(    7) = (   0.0000000   0.0000000  -0.5000000), wk =   0.0046296
        k(    8) = (   0.0000000   0.0833333   0.0833333), wk =   0.0069444
        k(    9) = (   0.0000000   0.0833333   0.1666667), wk =   0.0277778
        k(   10) = (   0.0000000   0.0833333   0.2500000), wk =   0.0277778
        k(   11) = (   0.0000000   0.0833333   0.3333333), wk =   0.0277778
        k(   12) = (   0.0000000   0.0833333   0.4166667), wk =   0.0277778
        k(   13) = (   0.0000000   0.0833333  -0.5000000), wk =   0.0277778
        k(   14) = (   0.0000000   0.0833333  -0.4166667), wk =   0.0277778
        k(   15) = (   0.0000000   0.0833333  -0.3333333), wk =   0.0277778
        k(   16) = (   0.0000000   0.0833333  -0.2500000), wk =   0.0277778
        k(   17) = (   0.0000000   0.0833333  -0.1666667), wk =   0.0277778
        k(   18) = (   0.0000000   0.0833333  -0.0833333), wk =   0.0138889
        k(   19) = (   0.0000000   0.1666667   0.1666667), wk =   0.0069444
        k(   20) = (   0.0000000   0.1666667   0.2500000), wk =   0.0277778
        k(   21) = (   0.0000000   0.1666667   0.3333333), wk =   0.0277778
        k(   22) = (   0.0000000   0.1666667   0.4166667), wk =   0.0277778
        k(   23) = (   0.0000000   0.1666667  -0.5000000), wk =   0.0277778
        k(   24) = (   0.0000000   0.1666667  -0.4166667), wk =   0.0277778
        k(   25) = (   0.0000000   0.1666667  -0.3333333), wk =   0.0277778
        k(   26) = (   0.0000000   0.1666667  -0.2500000), wk =   0.0277778
        k(   27) = (   0.0000000   0.1666667  -0.1666667), wk =   0.0138889
        k(   28) = (   0.0000000   0.2500000   0.2500000), wk =   0.0069444
        k(   29) = (   0.0000000   0.2500000   0.3333333), wk =   0.0277778
        k(   30) = (   0.0000000   0.2500000   0.4166667), wk =   0.0277778
        k(   31) = (   0.0000000   0.2500000  -0.5000000), wk =   0.0277778
        k(   32) = (   0.0000000   0.2500000  -0.4166667), wk =   0.0277778
        k(   33) = (   0.0000000   0.2500000  -0.3333333), wk =   0.0277778
        k(   34) = (   0.0000000   0.2500000  -0.2500000), wk =   0.0138889
        k(   35) = (   0.0000000   0.3333333   0.3333333), wk =   0.0069444
        k(   36) = (   0.0000000   0.3333333   0.4166667), wk =   0.0277778
        k(   37) = (   0.0000000   0.3333333  -0.5000000), wk =   0.0277778
        k(   38) = (   0.0000000   0.3333333  -0.4166667), wk =   0.0277778
        k(   39) = (   0.0000000   0.3333333  -0.3333333), wk =   0.0138889
        k(   40) = (   0.0000000   0.4166667   0.4166667), wk =   0.0069444
        k(   41) = (   0.0000000   0.4166667  -0.5000000), wk =   0.0277778
        k(   42) = (   0.0000000   0.4166667  -0.4166667), wk =   0.0138889
        k(   43) = (   0.0000000  -0.5000000  -0.5000000), wk =   0.0034722
        k(   44) = (   0.0833333   0.1666667   0.2500000), wk =   0.0277778
        k(   45) = (   0.0833333   0.1666667   0.3333333), wk =   0.0555556
        k(   46) = (   0.0833333   0.1666667   0.4166667), wk =   0.0555556
        k(   47) = (   0.0833333   0.1666667  -0.5000000), wk =   0.0555556
        k(   48) = (   0.0833333   0.1666667  -0.4166667), wk =   0.0277778
        k(   49) = (   0.0833333   0.2500000   0.3333333), wk =   0.0277778
        k(   50) = (   0.0833333   0.2500000   0.4166667), wk =   0.0555556
        k(   51) = (   0.0833333   0.2500000  -0.5000000), wk =   0.0555556
        k(   52) = (   0.0833333   0.2500000  -0.4166667), wk =   0.0555556
        k(   53) = (   0.0833333   0.2500000  -0.3333333), wk =   0.0555556
        k(   54) = (   0.0833333   0.2500000  -0.2500000), wk =   0.0555556
        k(   55) = (   0.0833333   0.2500000  -0.1666667), wk =   0.0277778
        k(   56) = (   0.0833333   0.3333333   0.4166667), wk =   0.0277778
        k(   57) = (   0.0833333   0.3333333  -0.5000000), wk =   0.0555556
        k(   58) = (   0.0833333   0.3333333  -0.4166667), wk =   0.0555556
        k(   59) = (   0.0833333   0.3333333  -0.3333333), wk =   0.0555556
        k(   60) = (   0.0833333   0.3333333  -0.2500000), wk =   0.0277778
        k(   61) = (   0.0833333   0.4166667  -0.5000000), wk =   0.0277778
        k(   62) = (   0.0833333   0.4166667  -0.4166667), wk =   0.0555556
        k(   63) = (   0.0833333   0.4166667  -0.3333333), wk =   0.0277778
        k(   64) = (   0.0833333  -0.5000000  -0.4166667), wk =   0.0138889
        k(   65) = (   0.1666667   0.3333333  -0.5000000), wk =   0.0277778
        k(   66) = (   0.1666667   0.3333333  -0.4166667), wk =   0.0555556
        k(   67) = (   0.1666667   0.3333333  -0.3333333), wk =   0.0277778
        k(   68) = (   0.1666667   0.4166667  -0.4166667), wk =   0.0277778
        k(   69) = (   0.1666667   0.4166667  -0.3333333), wk =   0.0555556
        k(   70) = (   0.1666667   0.4166667  -0.2500000), wk =   0.0277778
        k(   71) = (   0.1666667  -0.5000000  -0.3333333), wk =   0.0138889
        k(   72) = (   0.2500000  -0.5000000  -0.2500000), wk =   0.0069444

     PseudoPot. # 1 for Si read from file:
     ./Si.upf
     MD5 check sum: 9e2d726316af3d4752eea8ab0afbb951
     Pseudo is Norm-conserving + core correction, Zval =  4.0
     Generated using ONCVPSP code by D. R. Hamann
     Using radial grid of 1510 points,  6 beta functions with: 
                l(1) =   0
                l(2) =   0
                l(3) =   1
                l(4) =   1
                l(5) =   2
                l(6) =   2

     point group T_d (-43m) 
     there are  5 classes
     the character table:

       E     8C3   3C2   6S4   6s_d 
A_1    1.00  1.00  1.00  1.00  1.00
A_2    1.00  1.00  1.00 -1.00 -1.00
E      2.00 -1.00  2.00  0.00  0.00
T_1    3.00  0.00 -1.00  1.00 -1.00
T_2    3.00  0.00 -1.00 -1.00  1.00

     the symmetry operations in each class and the name of the first element:

     E        1
                                                                 
     8C3      5    7    8    6   12    9   10   11
                                                                 
     3C2      2    3    4
                                                                 
     6S4     15   16   20   19   23   24
                                                                 
     6s_d    13   14   17   18   21   22
                                                                 


     Electric field:
     Dielectric constant
     Born effective charges in two ways 


     Atomic displacements:
     There are    2 irreducible representations

     Representation     1      3 modes -  To be done
     Irreps are as follows:

     mode #   1              mode #   2              mode #   3
     (  -0.00000  -0.00000 ) (  -0.00000  -0.00000 ) (  -0.00000  -0.00000 ) 
     (  -0.00000  -0.00000 ) (  -0.00000  -0.00000 ) (  -0.00000  -0.00000 ) 
     (  -0.00000  -0.00000 ) (  -0.00000  -0.00000 ) (  -0.00000  -0.00000 ) 
     (  -0.60049  -0.00000 ) (  -0.34972  -0.00000 ) (  -0.71910  -0.00000 ) 
     (   0.79861  -0.00000 ) (  -0.30762  -0.00000 ) (  -0.51729  -0.00000 ) 
     (   0.04030  -0.00000 ) (   0.88491  -0.00000 ) (  -0.46402  -0.00000 ) 

     Representation     2      3 modes -  To be done
     Irreps are as follows:

     mode #   4              mode #   5              mode #   6
     (  -0.10000  -0.00000 ) (  -0.98995  -0.00000 ) (  -0.10000  -0.00000 ) 
     (   0.70000   0.00000 ) (  -0.14142  -0.00000 ) (   0.70000   0.00000 ) 
     (  -0.70711  -0.00000 ) (  -0.00000  -0.00000 ) (   0.70711   0.00000 ) 
     (  -0.00000  -0.00000 ) (  -0.00000  -0.00000 ) (  -0.00000   0.00000 ) 
     (  -0.00000  -0.00000 ) (  -0.00000  -0.00000 ) (  -0.00000   0.00000 ) 
     (  -0.00000  -0.00000 ) (  -0.00000  -0.00000 ) (  -0.00000   0.00000 ) 



     Alpha used in Ewald sum =   2.1000
     PHONON       :      2.05s CPU      2.10s WALL


     Electric Fields Calculation

      iter #   1 total cpu time :    71.9 secs   av.it.:   6.4
      thresh= 1.000E-02 alpha_mix =  0.700 |ddv_scf|^2 =  1.580E-07

      iter #   2 total cpu time :   104.1 secs   av.it.:  11.1
      thresh= 3.975E-05 alpha_mix =  0.700 |ddv_scf|^2 =  6.765E-09

      iter #   3 total cpu time :   136.9 secs   av.it.:  11.0
      thresh= 8.225E-06 alpha_mix =  0.700 |ddv_scf|^2 =  7.645E-11

      iter #   4 total cpu time :   178.1 secs   av.it.:  11.3
      thresh= 8.743E-07 alpha_mix =  0.700 |ddv_scf|^2 =  4.561E-13

      iter #   5 total cpu time :   206.4 secs   av.it.:  10.5
      thresh= 6.754E-08 alpha_mix =  0.700 |ddv_scf|^2 =  1.674E-16

      iter #   6 total cpu time :   239.4 secs   av.it.:  10.6
      thresh= 1.294E-09 alpha_mix =  0.700 |ddv_scf|^2 =  1.797E-18

     End of electric fields calculation

          Dielectric constant in cartesian axis 

          (      13.350819154      -0.000000000       0.000000000 )
          (      -0.000000000      13.350819154       0.000000000 )
          (      -0.000000000       0.000000000      13.350819154 )

          Effective charges (d Force / dE) in cartesian axis without acoustic sum rule applied (asr)

           atom      1   Si Mean Z*:       -0.00863
      Ex  (       -0.00863        0.00000       -0.00000 )
      Ey  (       -0.00000       -0.00863        0.00000 )
      Ez  (       -0.00000        0.00000       -0.00863 )
           atom      2   Si Mean Z*:       -0.00863
      Ex  (       -0.00863        0.00000        0.00000 )
      Ey  (        0.00000       -0.00863       -0.00000 )
      Ez  (        0.00000       -0.00000       -0.00863 )

          Effective charges Sum: Mean:       -0.01727
             -0.01727        0.00000       -0.00000
              0.00000       -0.01727        0.00000
              0.00000        0.00000       -0.01727

          Effective charges (d Force / dE) in cartesian axis with asr applied: 
           atom      1   Si Mean Z*:       -0.00000
      E*x (       -0.00000        0.00000       -0.00000 )
      E*y (       -0.00000       -0.00000        0.00000 )
      E*z (       -0.00000        0.00000       -0.00000 )
           atom      2   Si Mean Z*:        0.00000
      E*x (        0.00000        0.00000        0.00000 )
      E*y (        0.00000        0.00000       -0.00000 )
      E*z (        0.00000       -0.00000        0.00000 )


     Representation #   1 modes #   1   2   3

     Self-consistent Calculation

      iter #   1 total cpu time :   284.0 secs   av.it.:   6.1
      thresh= 1.000E-02 alpha_mix =  0.700 |ddv_scf|^2 =  1.957E-08

      iter #   2 total cpu time :   325.2 secs   av.it.:  11.8
      thresh= 1.399E-05 alpha_mix =  0.700 |ddv_scf|^2 =  5.495E-10

      iter #   3 total cpu time :   366.2 secs   av.it.:  11.7
      thresh= 2.344E-06 alpha_mix =  0.700 |ddv_scf|^2 =  2.312E-11

      iter #   4 total cpu time :   406.8 secs   av.it.:  11.6
      thresh= 4.808E-07 alpha_mix =  0.700 |ddv_scf|^2 =  2.133E-13

      iter #   5 total cpu time :   447.0 secs   av.it.:  11.6
      thresh= 4.619E-08 alpha_mix =  0.700 |ddv_scf|^2 =  6.358E-15

      iter #   6 total cpu time :   488.4 secs   av.it.:  11.9
      thresh= 7.974E-09 alpha_mix =  0.700 |ddv_scf|^2 =  3.533E-17

     End of self-consistent calculation

     Convergence has been achieved 


     Representation #   2 modes #   4   5   6

     Self-consistent Calculation

      iter #   1 total cpu time :   512.6 secs   av.it.:   6.1
      thresh= 1.000E-02 alpha_mix =  0.700 |ddv_scf|^2 =  1.957E-08

      iter #   2 total cpu time :   544.0 secs   av.it.:  11.8
      thresh= 1.399E-05 alpha_mix =  0.700 |ddv_scf|^2 =  5.498E-10

      iter #   3 total cpu time :   569.0 secs   av.it.:  11.7
      thresh= 2.345E-06 alpha_mix =  0.700 |ddv_scf|^2 =  2.313E-11

      iter #   4 total cpu time :   594.3 secs   av.it.:  11.6
      thresh= 4.809E-07 alpha_mix =  0.700 |ddv_scf|^2 =  2.136E-13

      iter #   5 total cpu time :   619.6 secs   av.it.:  11.6
      thresh= 4.622E-08 alpha_mix =  0.700 |ddv_scf|^2 =  6.355E-15

      iter #   6 total cpu time :   660.3 secs   av.it.:  11.9
      thresh= 7.972E-09 alpha_mix =  0.700 |ddv_scf|^2 =  3.543E-17

     End of self-consistent calculation

     Convergence has been achieved 

     Number of q in the star =    1
     List of q in the star:
          1   0.000000000   0.000000000   0.000000000

          Dielectric constant in cartesian axis 

          (      13.350819154      -0.000000000       0.000000000 )
          (      -0.000000000      13.350819154       0.000000000 )
          (      -0.000000000       0.000000000      13.350819154 )

          Effective charges (d Force / dE) in cartesian axis without acoustic sum rule applied (asr)

           atom      1   Si Mean Z*:       -0.00863
      Ex  (       -0.00863        0.00000       -0.00000 )
      Ey  (       -0.00000       -0.00863        0.00000 )
      Ez  (       -0.00000        0.00000       -0.00863 )
           atom      2   Si Mean Z*:       -0.00863
      Ex  (       -0.00863        0.00000        0.00000 )
      Ey  (        0.00000       -0.00863       -0.00000 )
      Ez  (        0.00000       -0.00000       -0.00863 )

          Effective charges Sum: Mean:       -0.01727
             -0.01727        0.00000       -0.00000
              0.00000       -0.01727        0.00000
              0.00000        0.00000       -0.01727

          Effective charges (d Force / dE) in cartesian axis with asr applied: 
           atom      1   Si Mean Z*:       -0.00000
      E*x (       -0.00000        0.00000       -0.00000 )
      E*y (       -0.00000       -0.00000        0.00000 )
      E*z (       -0.00000        0.00000       -0.00000 )
           atom      2   Si Mean Z*:        0.00000
      E*x (        0.00000        0.00000        0.00000 )
      E*y (        0.00000        0.00000       -0.00000 )
      E*z (        0.00000       -0.00000        0.00000 )

          Effective charges (d P / du) in cartesian axis 

           atom      1   Si 
      Px  (       -0.00857        0.00000        0.00000 )
      Py  (        0.00000       -0.00857        0.00000 )
      Pz  (       -0.00000        0.00000       -0.00857 )
           atom      2   Si 
      Px  (       -0.00857        0.00000        0.00000 )
      Py  (        0.00000       -0.00857        0.00000 )
      Pz  (       -0.00000        0.00000       -0.00857 )

     Diagonalizing the dynamical matrix

     q = (    0.000000000   0.000000000   0.000000000 ) 

 **************************************************************************
     freq (    1) =       0.048467 [THz] =       1.616698 [cm-1]
     freq (    2) =       0.048467 [THz] =       1.616698 [cm-1]
     freq (    3) =       0.048467 [THz] =       1.616698 [cm-1]
     freq (    4) =      15.398378 [THz] =     513.634619 [cm-1]
     freq (    5) =      15.398378 [THz] =     513.634619 [cm-1]
     freq (    6) =      15.398378 [THz] =     513.634619 [cm-1]
 **************************************************************************

     Mode symmetry, T_d (-43m)  point group:

     freq (   1-   3) =          1.6  [cm-1]   --> T_2  G_15 P_4   I+R
     freq (   4-   6) =        513.6  [cm-1]   --> T_2  G_15 P_4   I+R

     PHONON       :  10m57.39s CPU  11m 1.53s WALL

     INITIALIZATION: 
     phq_setup    :      0.01s CPU      0.01s WALL (       1 calls)
     phq_init     :      1.81s CPU      1.82s WALL (       1 calls)

     phq_init     :      1.81s CPU      1.82s WALL (       1 calls)
     set_drhoc    :      0.72s CPU      0.72s WALL (       3 calls)
     init_vloc    :      0.00s CPU      0.00s WALL (       1 calls)
     init_us_1    :      0.04s CPU      0.04s WALL (       1 calls)
     init_us_2    :      1.97s CPU      2.05s WALL (    2160 calls)

     DIELECTRIC CONSTANT AND EFFECTIVE CHARGES:
     solve_e      :    235.75s CPU    237.30s WALL (       1 calls)
     dielec       :      0.02s CPU      0.04s WALL (       1 calls)
     zstar_eu     :     15.97s CPU     16.07s WALL (       1 calls)

     DYNAMICAL MATRIX:
     dynmat0      :      1.04s CPU      1.04s WALL (       1 calls)
     phqscf       :    403.60s CPU    405.98s WALL (       1 calls)
     dynmatrix    :      0.00s CPU      0.00s WALL (       1 calls)

     phqscf       :    403.60s CPU    405.98s WALL (       1 calls)
     solve_linter :    401.44s CPU    403.74s WALL (       2 calls)
     drhodv       :      1.97s CPU      1.98s WALL (       2 calls)
     add_zstar_ue :      0.19s CPU      0.25s WALL (       2 calls)

     dynmat0      :      1.04s CPU      1.04s WALL (       1 calls)
     dynmat_us    :      0.54s CPU      0.54s WALL (       1 calls)
     d2ionq       :      0.01s CPU      0.01s WALL (       1 calls)
     dynmatcc     :      0.49s CPU      0.49s WALL (       1 calls)

     dynmat_us    :      0.54s CPU      0.54s WALL (       1 calls)

     phqscf       :    403.60s CPU    405.98s WALL (       1 calls)
     solve_linter :    401.44s CPU    403.74s WALL (       2 calls)

     solve_linter :    401.44s CPU    403.74s WALL (       2 calls)
     dvqpsi_us    :     28.35s CPU     28.57s WALL (     864 calls)
                                        0.00s GPU  (     864 calls)
     sth_kernel   :    570.66s CPU    573.47s WALL (      18 calls)
     h_prec       :      0.08s CPU      0.08s WALL (    1512 calls)
     apply_dpot_b :     32.32s CPU     32.58s WALL (    3240 calls)
     ortho        :      0.74s CPU      0.75s WALL (    4104 calls)
     cgsolve      :    544.44s CPU    546.71s WALL (    4104 calls)
     incdrhoscf   :     39.46s CPU     39.95s WALL (    3888 calls)
                                        0.00s GPU  (    3888 calls)
     dv_of_drho   :      0.34s CPU      0.34s WALL (      54 calls)
     mix_pot      :      0.08s CPU      0.27s WALL (      18 calls)
     psymdvscf    :      2.07s CPU      2.10s WALL (      12 calls)

     dvqpsi_us    :     28.35s CPU     28.57s WALL (     864 calls)
                                        0.00s GPU  (     864 calls)
     dvqpsi_us_on :      3.09s CPU      3.10s WALL (     864 calls)

     cgsolve      :    544.44s CPU    546.71s WALL (    4104 calls)
     ch_psi       :    538.44s CPU    540.65s WALL (   52126 calls)

     ch_psi       :    538.44s CPU    540.65s WALL (   52126 calls)
     h_psi        :    504.76s CPU    506.82s WALL (   52126 calls)
     last         :     32.23s CPU     32.39s WALL (   52126 calls)

     h_psi        :    504.76s CPU    506.82s WALL (   52126 calls)
     add_vuspsi   :     23.45s CPU     23.55s WALL (   52126 calls)

     incdrhoscf   :     39.46s CPU     39.95s WALL (    3888 calls)
                                        0.00s GPU  (    3888 calls)


      General routines
     calbec       :     48.23s CPU     48.47s WALL (  106916 calls)
     fft          :      2.35s CPU      2.39s WALL (    1110 calls)
     ffts         :      1.82s CPU      1.85s WALL (     876 calls)
     fftw         :    499.05s CPU    501.67s WALL (  446404 calls)
     davcio       :      1.25s CPU      1.47s WALL (   18186 calls)
     write_rec    :      0.01s CPU      0.08s WALL (      20 calls)

      Additional routines
     ch_psi       :    538.44s CPU    540.65s WALL (   52126 calls)
     last         :     32.23s CPU     32.39s WALL (   52126 calls)
     Hesh         :      1.51s CPU      1.53s WALL (   52126 calls)
     ch_psi_all_k :     30.52s CPU     30.67s WALL (   52126 calls)
                                        0.00s GPU  (   52126 calls)
     ch_psi_calbe :     22.19s CPU     22.28s WALL (   52126 calls)
                                        0.00s GPU  (   52126 calls)
     h_psi_bgrp   :    504.85s CPU    506.91s WALL (   52126 calls)
     h_psi        :    504.76s CPU    506.82s WALL (   52126 calls)
     h_psi:pot    :    503.81s CPU    505.86s WALL (   52126 calls)
     h_psi:calbec :     24.03s CPU     24.10s WALL (   52126 calls)
     s_psi_bgrp   :      1.05s CPU      1.06s WALL (  108356 calls)


     PHONON       :  10m57.39s CPU  11m 1.53s WALL


   This run was terminated on:  17: 4:47  19Oct2022            

=------------------------------------------------------------------------------=
   JOB DONE.
=------------------------------------------------------------------------------=
